 TITLE = "Gap Strings Data" 
 Variables = "X" "Y" "Z" "Nx" "Ny" "Nz" "Vx" "Vy" "Vz" "ind" "gapID" "gapIndex" "otherID" "otherIndex" "ratio"
 Zone T=gap_00001
 Nodes =          128  Elements=          128  ZONETYPE=FELINESEG
 DATAPACKING=BLOCK
 -0.121022167752E-01
 -0.114745880029E-01
 -0.108371761710E-01
 -0.101889311386E-01
 -0.952529055826E-02
 -0.885278852088E-02
 -0.817046720386E-02
 -0.747642390918E-02
 -0.677559644729E-02
 -0.606745633977E-02
 -0.535028287408E-02
 -0.462803706225E-02
 -0.390127952795E-02
 -0.316847804340E-02
 -0.243268115129E-02
 -0.169446045222E-02
 -0.954054143261E-03
 -0.212543225687E-03
  0.529061114281E-03
  0.127005546777E-02
  0.200931551655E-02
  0.274610528961E-02
  0.348003105073E-02
  0.421003999810E-02
  0.493373010680E-02
  0.565243980739E-02
  0.636573442052E-02
  0.706914215811E-02
  0.776536192268E-02
  0.845392428808E-02
  0.912937647946E-02
  0.979594365993E-02
  0.104538086510E-01
  0.116714731919E-01
  0.128424775924E-01
  0.139621966727E-01
  0.150221127877E-01
  0.160168396084E-01
  0.169472540615E-01
  0.178098155495E-01
  0.185913490469E-01
  0.192958187383E-01
  0.199233248468E-01
  0.204662295850E-01
  0.209199896524E-01
  0.212905286016E-01
  0.215688521945E-01
  0.217561663694E-01
  0.218575763555E-01
  0.218588588288E-01
  0.217770220447E-01
  0.215948641740E-01
  0.213283158249E-01
  0.209702143342E-01
  0.205218081153E-01
  0.199922441126E-01
  0.193770324155E-01
  0.186775171353E-01
  0.179023686075E-01
  0.170553289201E-01
  0.161295670775E-01
  0.151388169536E-01
  0.140872220831E-01
  0.129764862836E-01
  0.118080368884E-01
  0.111814613371E-01
  0.105367663964E-01
  0.988287529414E-02
  0.921933656060E-02
  0.854120415625E-02
  0.785522325012E-02
  0.716120002004E-02
  0.645652918285E-02
  0.574591769807E-02
  0.502936791183E-02
  0.430502789789E-02
  0.357665657693E-02
  0.284475044452E-02
  0.210887863588E-02
  0.137068621677E-02
  0.631136277358E-03
 -0.109106688121E-03
 -0.849161766236E-03
 -0.158819075140E-02
 -0.232553877521E-02
 -0.306011460853E-02
 -0.379059037090E-02
 -0.451713939171E-02
 -0.523893378911E-02
 -0.595270730888E-02
 -0.666067529602E-02
 -0.736246074199E-02
 -0.805261577296E-02
 -0.873443399941E-02
 -0.940839648332E-02
 -0.100674140795E-01
 -0.107172056213E-01
 -0.119100791821E-01
 -0.130565720444E-01
 -0.141491483026E-01
 -0.151815178231E-01
 -0.161543330191E-01
 -0.170639116182E-01
 -0.179027004307E-01
 -0.186644442385E-01
 -0.193530792225E-01
 -0.199664059868E-01
 -0.204932881798E-01
 -0.209373792887E-01
 -0.213000999919E-01
 -0.215716802521E-01
 -0.217558945691E-01
 -0.218570653476E-01
 -0.218598041619E-01
 -0.217812454309E-01
 -0.216080610586E-01
 -0.213495055925E-01
 -0.210070898609E-01
 -0.205714118503E-01
 -0.200563709115E-01
 -0.194634244610E-01
 -0.187849732813E-01
 -0.180300763569E-01
 -0.172046232922E-01
 -0.163116004793E-01
 -0.153456651654E-01
 -0.143192850155E-01
 -0.132367463979E-01
  0.100000001490E+00
  0.100000001490E+00
  0.100000001490E+00
  0.100000001490E+00
  0.100000001490E+00
  0.100000001490E+00
  0.100000001490E+00
  0.100000001490E+00
  0.100000001490E+00
  0.100000001490E+00
  0.100000001490E+00
  0.100000001490E+00
  0.100000001490E+00
  0.100000001490E+00
  0.100000001490E+00
  0.100000001490E+00
  0.100000001490E+00
  0.100000001490E+00
  0.100000001490E+00
  0.100000001490E+00
  0.100000001490E+00
  0.100000001490E+00
  0.100000001490E+00
  0.100000001490E+00
  0.100000001490E+00
  0.100000001490E+00
  0.100000001490E+00
  0.100000001490E+00
  0.100000001490E+00
  0.100000001490E+00
  0.100000001490E+00
  0.100000001490E+00
  0.100000001490E+00
  0.100000001490E+00
  0.100000001490E+00
  0.100000001490E+00
  0.100000001490E+00
  0.100000001490E+00
  0.100000001490E+00
  0.100000001490E+00
  0.100000001490E+00
  0.100000001490E+00
  0.100000001490E+00
  0.100000001490E+00
  0.100000001490E+00
  0.100000001490E+00
  0.100000001490E+00
  0.100000001490E+00
  0.100000001490E+00
  0.100000001490E+00
  0.100000001490E+00
  0.100000001490E+00
  0.100000001490E+00
  0.100000001490E+00
  0.100000001490E+00
  0.100000001490E+00
  0.100000001490E+00
  0.100000001490E+00
  0.100000001490E+00
  0.100000001490E+00
  0.100000001490E+00
  0.100000001490E+00
  0.100000001490E+00
  0.100000001490E+00
  0.100000001490E+00
  0.100000001490E+00
  0.100000001490E+00
  0.100000001490E+00
  0.100000001490E+00
  0.100000001490E+00
  0.100000001490E+00
  0.100000001490E+00
  0.100000001490E+00
  0.100000001490E+00
  0.100000001490E+00
  0.100000001490E+00
  0.100000001490E+00
  0.100000001490E+00
  0.100000001490E+00
  0.100000001490E+00
  0.100000001490E+00
  0.100000001490E+00
  0.100000001490E+00
  0.100000001490E+00
  0.100000001490E+00
  0.100000001490E+00
  0.100000001490E+00
  0.100000001490E+00
  0.100000001490E+00
  0.100000001490E+00
  0.100000001490E+00
  0.100000001490E+00
  0.100000001490E+00
  0.100000001490E+00
  0.100000001490E+00
  0.100000001490E+00
  0.100000001490E+00
  0.100000001490E+00
  0.100000001490E+00
  0.100000001490E+00
  0.100000001490E+00
  0.100000001490E+00
  0.100000001490E+00
  0.100000001490E+00
  0.100000001490E+00
  0.100000001490E+00
  0.100000001490E+00
  0.100000001490E+00
  0.100000001490E+00
  0.100000001490E+00
  0.100000001490E+00
  0.100000001490E+00
  0.100000001490E+00
  0.100000001490E+00
  0.100000001490E+00
  0.100000001490E+00
  0.100000001490E+00
  0.100000001490E+00
  0.100000001490E+00
  0.100000001490E+00
  0.100000001490E+00
  0.100000001490E+00
  0.100000001490E+00
  0.100000001490E+00
  0.100000001490E+00
  0.100000001490E+00
  0.100000001490E+00
  0.100000001490E+00
  0.182180540278E-01
  0.186132812306E-01
  0.189926424140E-01
  0.193532384545E-01
  0.196845659090E-01
  0.199976698580E-01
  0.202887961663E-01
  0.205507273371E-01
  0.207939599816E-01
  0.210150000182E-01
  0.212046909638E-01
  0.213739654266E-01
  0.215225434673E-01
  0.216378259269E-01
  0.217318728248E-01
  0.218040497971E-01
  0.218483954532E-01
  0.218647713046E-01
  0.218583949723E-01
  0.218293402071E-01
  0.217707587079E-01
  0.216869244489E-01
  0.215814673101E-01
  0.214521583831E-01
  0.212912812548E-01
  0.211098959265E-01
  0.209087363835E-01
  0.206749250312E-01
  0.204210446202E-01
  0.201478165400E-01
  0.198432230623E-01
  0.195199536423E-01
  0.191797126490E-01
  0.184607350785E-01
  0.176678395573E-01
  0.168038591218E-01
  0.158671567179E-01
  0.148611987034E-01
  0.137953566067E-01
  0.126737832535E-01
  0.114941584030E-01
  0.102668403508E-01
  0.899836765849E-02
  0.769130494727E-02
  0.635053713859E-02
  0.498443375884E-02
  0.359652220695E-02
  0.219333300563E-02
  0.781286515922E-03
 -0.634430677082E-03
 -0.204780307944E-02
 -0.345184955218E-02
 -0.484234670318E-02
 -0.621213729527E-02
 -0.755509446187E-02
 -0.886816904403E-02
 -0.101433486273E-01
 -0.113742709462E-01
 -0.125590277243E-01
 -0.136934776979E-01
 -0.147645422455E-01
 -0.157757421135E-01
 -0.167234512586E-01
 -0.176009875689E-01
 -0.183998314813E-01
 -0.187940806282E-01
 -0.191577636468E-01
 -0.195048017500E-01
 -0.198331242603E-01
 -0.201301091993E-01
 -0.204086714459E-01
 -0.206666037102E-01
 -0.208937666200E-01
 -0.211017076362E-01
 -0.212882247117E-01
 -0.214417198471E-01
 -0.215747807309E-01
 -0.216867000186E-01
 -0.217686266319E-01
 -0.218258601806E-01
 -0.218609166184E-01
 -0.218719357397E-01
 -0.218512469825E-01
 -0.218078919275E-01
 -0.217424957050E-01
 -0.216512521363E-01
 -0.215314688056E-01
 -0.213903001350E-01
 -0.212272346489E-01
 -0.210317075754E-01
 -0.208164456492E-01
 -0.205821790687E-01
 -0.203154156944E-01
 -0.200285517528E-01
 -0.197240643537E-01
 -0.193880786938E-01
 -0.190348723474E-01
 -0.183132327150E-01
 -0.175198216702E-01
 -0.166533948963E-01
 -0.157157507354E-01
 -0.147163503332E-01
 -0.136589764918E-01
 -0.125444390131E-01
 -0.113758111797E-01
 -0.101626083732E-01
 -0.890958458084E-02
 -0.761766159026E-02
 -0.629490753597E-02
 -0.494758040541E-02
 -0.357888687385E-02
 -0.219564774449E-02
 -0.803831745566E-03
  0.591688476966E-03
  0.198501737301E-02
  0.336983909305E-02
  0.474129528627E-02
  0.609425120865E-02
  0.742015467238E-02
  0.871729673038E-02
  0.998072944236E-02
  0.112003690283E-01
  0.123742289249E-01
  0.134995810032E-01
  0.145720856064E-01
  0.155793359116E-01
  0.165248801896E-01
  0.174055303117E-01
  0.000000000000E+00
  0.000000000000E+00
  0.000000000000E+00
  0.000000000000E+00
  0.000000000000E+00
  0.000000000000E+00
  0.000000000000E+00
  0.000000000000E+00
  0.000000000000E+00
  0.000000000000E+00
  0.000000000000E+00
  0.000000000000E+00
  0.000000000000E+00
  0.000000000000E+00
  0.000000000000E+00
  0.000000000000E+00
  0.000000000000E+00
  0.000000000000E+00
  0.000000000000E+00
  0.000000000000E+00
  0.000000000000E+00
  0.000000000000E+00
  0.000000000000E+00
  0.000000000000E+00
  0.000000000000E+00
  0.000000000000E+00
  0.000000000000E+00
  0.000000000000E+00
  0.000000000000E+00
  0.000000000000E+00
  0.000000000000E+00
  0.000000000000E+00
  0.000000000000E+00
  0.000000000000E+00
  0.000000000000E+00
  0.000000000000E+00
  0.000000000000E+00
  0.000000000000E+00
  0.000000000000E+00
  0.000000000000E+00
  0.000000000000E+00
  0.000000000000E+00
  0.000000000000E+00
  0.000000000000E+00
  0.000000000000E+00
  0.000000000000E+00
  0.000000000000E+00
  0.000000000000E+00
  0.000000000000E+00
  0.000000000000E+00
  0.000000000000E+00
  0.000000000000E+00
  0.000000000000E+00
  0.000000000000E+00
  0.000000000000E+00
  0.000000000000E+00
  0.000000000000E+00
  0.000000000000E+00
  0.000000000000E+00
  0.000000000000E+00
  0.000000000000E+00
  0.000000000000E+00
  0.000000000000E+00
  0.000000000000E+00
  0.000000000000E+00
  0.000000000000E+00
  0.000000000000E+00
  0.000000000000E+00
  0.000000000000E+00
  0.000000000000E+00
  0.000000000000E+00
  0.000000000000E+00
  0.000000000000E+00
  0.000000000000E+00
  0.000000000000E+00
  0.000000000000E+00
  0.000000000000E+00
  0.000000000000E+00
  0.000000000000E+00
  0.000000000000E+00
  0.000000000000E+00
  0.000000000000E+00
  0.000000000000E+00
  0.000000000000E+00
  0.000000000000E+00
  0.000000000000E+00
  0.000000000000E+00
  0.000000000000E+00
  0.000000000000E+00
  0.000000000000E+00
  0.000000000000E+00
  0.000000000000E+00
  0.000000000000E+00
  0.000000000000E+00
  0.000000000000E+00
  0.000000000000E+00
  0.000000000000E+00
  0.000000000000E+00
  0.000000000000E+00
  0.000000000000E+00
  0.000000000000E+00
  0.000000000000E+00
  0.000000000000E+00
  0.000000000000E+00
  0.000000000000E+00
  0.000000000000E+00
  0.000000000000E+00
  0.000000000000E+00
  0.000000000000E+00
  0.000000000000E+00
  0.000000000000E+00
  0.000000000000E+00
  0.000000000000E+00
  0.000000000000E+00
  0.000000000000E+00
  0.000000000000E+00
  0.000000000000E+00
  0.000000000000E+00
  0.000000000000E+00
  0.000000000000E+00
  0.000000000000E+00
  0.000000000000E+00
  0.000000000000E+00
  0.000000000000E+00
  0.000000000000E+00
  0.000000000000E+00
  0.000000000000E+00
  0.000000000000E+00
 -0.100000000000E+01
 -0.100000000000E+01
 -0.100000000000E+01
 -0.100000000000E+01
 -0.100000000000E+01
 -0.100000000000E+01
 -0.100000000000E+01
 -0.100000000000E+01
 -0.100000000000E+01
 -0.100000000000E+01
 -0.100000000000E+01
 -0.100000000000E+01
 -0.100000000000E+01
 -0.100000000000E+01
 -0.100000000000E+01
 -0.100000000000E+01
 -0.100000000000E+01
 -0.100000000000E+01
 -0.100000000000E+01
 -0.100000000000E+01
 -0.100000000000E+01
 -0.100000000000E+01
 -0.100000000000E+01
 -0.100000000000E+01
 -0.100000000000E+01
 -0.100000000000E+01
 -0.100000000000E+01
 -0.100000000000E+01
 -0.100000000000E+01
 -0.100000000000E+01
 -0.100000000000E+01
 -0.100000000000E+01
 -0.100000000000E+01
 -0.100000000000E+01
 -0.100000000000E+01
 -0.100000000000E+01
 -0.100000000000E+01
 -0.100000000000E+01
 -0.100000000000E+01
 -0.100000000000E+01
 -0.100000000000E+01
 -0.100000000000E+01
 -0.100000000000E+01
 -0.100000000000E+01
 -0.100000000000E+01
 -0.100000000000E+01
 -0.100000000000E+01
 -0.100000000000E+01
 -0.100000000000E+01
 -0.100000000000E+01
 -0.100000000000E+01
 -0.100000000000E+01
 -0.100000000000E+01
 -0.100000000000E+01
 -0.100000000000E+01
 -0.100000000000E+01
 -0.100000000000E+01
 -0.100000000000E+01
 -0.100000000000E+01
 -0.100000000000E+01
 -0.100000000000E+01
 -0.100000000000E+01
 -0.100000000000E+01
 -0.100000000000E+01
 -0.100000000000E+01
 -0.100000000000E+01
 -0.100000000000E+01
 -0.100000000000E+01
 -0.100000000000E+01
 -0.100000000000E+01
 -0.100000000000E+01
 -0.100000000000E+01
 -0.100000000000E+01
 -0.100000000000E+01
 -0.100000000000E+01
 -0.100000000000E+01
 -0.100000000000E+01
 -0.100000000000E+01
 -0.100000000000E+01
 -0.100000000000E+01
 -0.100000000000E+01
 -0.100000000000E+01
 -0.100000000000E+01
 -0.100000000000E+01
 -0.100000000000E+01
 -0.100000000000E+01
 -0.100000000000E+01
 -0.100000000000E+01
 -0.100000000000E+01
 -0.100000000000E+01
 -0.100000000000E+01
 -0.100000000000E+01
 -0.100000000000E+01
 -0.100000000000E+01
 -0.100000000000E+01
 -0.100000000000E+01
 -0.100000000000E+01
 -0.100000000000E+01
 -0.100000000000E+01
 -0.100000000000E+01
 -0.100000000000E+01
 -0.100000000000E+01
 -0.100000000000E+01
 -0.100000000000E+01
 -0.100000000000E+01
 -0.100000000000E+01
 -0.100000000000E+01
 -0.100000000000E+01
 -0.100000000000E+01
 -0.100000000000E+01
 -0.100000000000E+01
 -0.100000000000E+01
 -0.100000000000E+01
 -0.100000000000E+01
 -0.100000000000E+01
 -0.100000000000E+01
 -0.100000000000E+01
 -0.100000000000E+01
 -0.100000000000E+01
 -0.100000000000E+01
 -0.100000000000E+01
 -0.100000000000E+01
 -0.100000000000E+01
 -0.100000000000E+01
 -0.100000000000E+01
 -0.100000000000E+01
 -0.100000000000E+01
 -0.100000000000E+01
  0.000000000000E+00
  0.000000000000E+00
  0.000000000000E+00
  0.000000000000E+00
  0.000000000000E+00
  0.000000000000E+00
  0.000000000000E+00
  0.000000000000E+00
  0.000000000000E+00
  0.000000000000E+00
  0.000000000000E+00
  0.000000000000E+00
  0.000000000000E+00
  0.000000000000E+00
  0.000000000000E+00
  0.000000000000E+00
  0.000000000000E+00
  0.000000000000E+00
  0.000000000000E+00
  0.000000000000E+00
  0.000000000000E+00
  0.000000000000E+00
  0.000000000000E+00
  0.000000000000E+00
  0.000000000000E+00
  0.000000000000E+00
  0.000000000000E+00
  0.000000000000E+00
  0.000000000000E+00
  0.000000000000E+00
  0.000000000000E+00
  0.000000000000E+00
  0.000000000000E+00
  0.000000000000E+00
  0.000000000000E+00
  0.000000000000E+00
  0.000000000000E+00
  0.000000000000E+00
  0.000000000000E+00
  0.000000000000E+00
  0.000000000000E+00
  0.000000000000E+00
  0.000000000000E+00
  0.000000000000E+00
  0.000000000000E+00
  0.000000000000E+00
  0.000000000000E+00
  0.000000000000E+00
  0.000000000000E+00
  0.000000000000E+00
  0.000000000000E+00
  0.000000000000E+00
  0.000000000000E+00
  0.000000000000E+00
  0.000000000000E+00
  0.000000000000E+00
  0.000000000000E+00
  0.000000000000E+00
  0.000000000000E+00
  0.000000000000E+00
  0.000000000000E+00
  0.000000000000E+00
  0.000000000000E+00
  0.000000000000E+00
  0.000000000000E+00
  0.000000000000E+00
  0.000000000000E+00
  0.000000000000E+00
  0.000000000000E+00
  0.000000000000E+00
  0.000000000000E+00
  0.000000000000E+00
  0.000000000000E+00
  0.000000000000E+00
  0.000000000000E+00
  0.000000000000E+00
  0.000000000000E+00
  0.000000000000E+00
  0.000000000000E+00
  0.000000000000E+00
  0.000000000000E+00
  0.000000000000E+00
  0.000000000000E+00
  0.000000000000E+00
  0.000000000000E+00
  0.000000000000E+00
  0.000000000000E+00
  0.000000000000E+00
  0.000000000000E+00
  0.000000000000E+00
  0.000000000000E+00
  0.000000000000E+00
  0.000000000000E+00
  0.000000000000E+00
  0.000000000000E+00
  0.000000000000E+00
  0.000000000000E+00
  0.000000000000E+00
  0.000000000000E+00
  0.000000000000E+00
  0.000000000000E+00
  0.000000000000E+00
  0.000000000000E+00
  0.000000000000E+00
  0.000000000000E+00
  0.000000000000E+00
  0.000000000000E+00
  0.000000000000E+00
  0.000000000000E+00
  0.000000000000E+00
  0.000000000000E+00
  0.000000000000E+00
  0.000000000000E+00
  0.000000000000E+00
  0.000000000000E+00
  0.000000000000E+00
  0.000000000000E+00
  0.000000000000E+00
  0.000000000000E+00
  0.000000000000E+00
  0.000000000000E+00
  0.000000000000E+00
  0.000000000000E+00
  0.000000000000E+00
  0.000000000000E+00
  0.000000000000E+00
  0.000000000000E+00
  0.000000000000E+00
  0.709667752422E-04
  0.116208800287E-02
  0.524676171031E-03
 -0.123568861373E-03
 -0.787209441738E-03
  0.259038520875E-03
  0.129546720386E-02
  0.601423909180E-03
 -0.994035527102E-04
 -0.807543660226E-03
  0.194032874079E-03
 -0.528212937746E-03
  0.463779527950E-03
 -0.269021956596E-03
  0.713931151289E-03
 -0.242895477839E-04
 -0.764695856739E-03
  0.212543225687E-03
 -0.529061114281E-03
  0.448694532227E-03
 -0.290565516545E-03
  0.691394710392E-03
 -0.425310507333E-04
 -0.772539998097E-03
  0.222519893204E-03
 -0.496189807386E-03
  0.509265579484E-03
 -0.194142158105E-03
 -0.890361922680E-03
  0.139825711918E-03
 -0.535626479460E-03
  0.516556340068E-03
 -0.141308651032E-03
  0.359776808057E-03
 -0.811227592356E-03
 -0.212196672669E-03
 -0.127211278773E-02
 -0.548089608405E-03
 -0.147850406155E-02
 -0.622315549511E-03
  0.314900953075E-03
 -0.389568738259E-03
 -0.101707484684E-02
  0.158770415021E-03
 -0.294989652441E-03
 -0.665528601552E-03
 -0.943852194540E-03
 -0.113116636938E-02
 -0.123257635550E-02
 -0.123385882877E-02
 -0.115202204471E-02
 -0.969864173955E-03
 -0.703315824874E-03
 -0.345214334202E-03
  0.103191884689E-03
 -0.108599411263E-02
 -0.470782415510E-03
  0.228732864708E-03
 -0.714868607498E-03
 -0.158657892009E-02
 -0.660817077525E-03
 -0.138881695357E-02
 -0.337222083127E-03
 -0.945236283593E-03
  0.223213111619E-03
 -0.868961337135E-03
 -0.224266396352E-03
  0.429624705862E-03
 -0.625586560599E-03
  0.525458437508E-04
 -0.980223250122E-03
 -0.286200020043E-03
  0.418470817149E-03
 -0.589667698069E-03
  0.126882088172E-03
  0.851222102108E-03
 -0.139156576935E-03
  0.592749555484E-03
 -0.390128635878E-03
  0.348063783230E-03
 -0.631136277358E-03
  0.109106688121E-03
  0.849161766236E-03
 -0.130559248601E-03
  0.606788775211E-03
 -0.377385391472E-03
  0.353090370899E-03
 -0.639110608290E-03
  0.826837891081E-04
  0.796457308885E-03
 -0.214324703980E-03
  0.487460741987E-03
  0.117761577296E-02
  0.140683999410E-03
  0.814646483325E-03
 -0.245085920499E-03
  0.404705621289E-03
 -0.121170817856E-03
  0.102532204436E-02
  0.399148302556E-03
  0.143151782313E-02
  0.685583019110E-03
  0.159516161824E-02
  0.715200430697E-03
 -0.241805761530E-03
  0.446829222458E-03
  0.106015598679E-02
 -0.131711820237E-03
  0.312379288682E-03
  0.675099991899E-03
  0.946680252116E-03
  0.113089456911E-02
  0.123206534765E-02
  0.123480416194E-02
  0.115624543095E-02
  0.983061058567E-03
  0.724505592481E-03
  0.382089860893E-03
 -0.535881497040E-04
  0.115012091149E-02
  0.557174461048E-03
 -0.121276718681E-03
  0.842576356884E-03
  0.171232921535E-04
  0.842850479342E-03
  0.159566516537E-02
  0.569285015542E-03
  0.120549639794E-02
  0.000000000000E+00
  0.000000000000E+00
  0.000000000000E+00
  0.000000000000E+00
  0.000000000000E+00
  0.000000000000E+00
  0.000000000000E+00
  0.000000000000E+00
  0.000000000000E+00
  0.000000000000E+00
  0.000000000000E+00
  0.000000000000E+00
  0.000000000000E+00
  0.000000000000E+00
  0.000000000000E+00
  0.000000000000E+00
  0.000000000000E+00
  0.000000000000E+00
  0.000000000000E+00
  0.000000000000E+00
  0.000000000000E+00
  0.000000000000E+00
  0.000000000000E+00
  0.000000000000E+00
  0.000000000000E+00
  0.000000000000E+00
  0.000000000000E+00
  0.000000000000E+00
  0.000000000000E+00
  0.000000000000E+00
  0.000000000000E+00
  0.000000000000E+00
  0.000000000000E+00
  0.000000000000E+00
  0.000000000000E+00
  0.000000000000E+00
  0.000000000000E+00
  0.000000000000E+00
  0.000000000000E+00
  0.000000000000E+00
  0.000000000000E+00
  0.000000000000E+00
  0.000000000000E+00
  0.000000000000E+00
  0.000000000000E+00
  0.000000000000E+00
  0.000000000000E+00
  0.000000000000E+00
  0.000000000000E+00
  0.000000000000E+00
  0.000000000000E+00
  0.000000000000E+00
  0.000000000000E+00
  0.000000000000E+00
  0.000000000000E+00
  0.000000000000E+00
  0.000000000000E+00
  0.000000000000E+00
  0.000000000000E+00
  0.000000000000E+00
  0.000000000000E+00
  0.000000000000E+00
  0.000000000000E+00
  0.000000000000E+00
  0.000000000000E+00
  0.000000000000E+00
  0.000000000000E+00
  0.000000000000E+00
  0.000000000000E+00
  0.000000000000E+00
  0.000000000000E+00
  0.000000000000E+00
  0.000000000000E+00
  0.000000000000E+00
  0.000000000000E+00
  0.000000000000E+00
  0.000000000000E+00
  0.000000000000E+00
  0.000000000000E+00
  0.000000000000E+00
  0.000000000000E+00
  0.000000000000E+00
  0.000000000000E+00
  0.000000000000E+00
  0.000000000000E+00
  0.000000000000E+00
  0.000000000000E+00
  0.000000000000E+00
  0.000000000000E+00
  0.000000000000E+00
  0.000000000000E+00
  0.000000000000E+00
  0.000000000000E+00
  0.000000000000E+00
  0.000000000000E+00
  0.000000000000E+00
  0.000000000000E+00
  0.000000000000E+00
  0.000000000000E+00
  0.000000000000E+00
  0.000000000000E+00
  0.000000000000E+00
  0.000000000000E+00
  0.000000000000E+00
  0.000000000000E+00
  0.000000000000E+00
  0.000000000000E+00
  0.000000000000E+00
  0.000000000000E+00
  0.000000000000E+00
  0.000000000000E+00
  0.000000000000E+00
  0.000000000000E+00
  0.000000000000E+00
  0.000000000000E+00
  0.000000000000E+00
  0.000000000000E+00
  0.000000000000E+00
  0.000000000000E+00
  0.000000000000E+00
  0.000000000000E+00
  0.000000000000E+00
  0.000000000000E+00
  0.000000000000E+00
  0.000000000000E+00
  0.000000000000E+00
  0.000000000000E+00
  0.000000000000E+00
 -0.103055402781E-02
  0.292968769397E-03
 -0.863924139591E-04
 -0.446988454546E-03
 -0.778315908961E-03
 -0.109141985796E-02
  0.336203833722E-03
  0.742726628563E-04
 -0.168959981567E-03
 -0.390000018162E-03
 -0.579690963824E-03
 -0.748965426559E-03
 -0.897543467253E-03
 -0.101282592693E-02
 -0.110687282482E-02
 -0.117904979711E-02
 -0.122339545325E-02
 -0.123977130461E-02
 -0.123339497230E-02
 -0.120434020710E-02
 -0.114575870787E-02
 -0.106192444893E-02
 -0.956467310130E-03
 -0.827158383092E-03
 -0.666281254787E-03
 -0.484895926495E-03
 -0.283736383520E-03
 -0.499250312231E-04
  0.203955379766E-03
 -0.124156654002E-02
 -0.936973062337E-03
 -0.613703642280E-03
 -0.273462649047E-03
 -0.127323507851E-02
 -0.480339557290E-03
 -0.133510912177E-02
 -0.398406717868E-03
 -0.111119870342E-02
 -0.453566066572E-04
 -0.642533253461E-03
 -0.118165840300E-02
  0.456596491706E-04
 -0.404617658491E-03
 -0.816304947275E-03
  0.524462861410E-03
  0.171816241165E-03
 -0.159022206952E-03
 -0.474583005629E-03
 -0.781286515922E-03
  0.634430677082E-03
  0.329053079442E-03
  0.143495521787E-04
 -0.313903296824E-03
 -0.662862704728E-03
  0.680094461873E-03
  0.274419044030E-03
 -0.169151372665E-03
  0.106177094622E-02
  0.527777724277E-03
 -0.565223021053E-04
  0.101454224550E-02
  0.306992113471E-03
  0.125470125861E-02
  0.413487568907E-03
  0.121233148127E-02
 -0.112169371831E-03
  0.251513646827E-03
  0.598551750043E-03
  0.926874260272E-03
  0.122385919926E-02
 -0.216328554075E-03
  0.416037102020E-04
  0.268766620010E-03
  0.476707636175E-03
  0.663224711682E-03
  0.816719847055E-03
  0.949780730930E-03
  0.106170001863E-02
  0.114362663193E-02
  0.120086018057E-02
  0.123591661844E-02
  0.124693573973E-02
  0.122624698246E-02
  0.118289192755E-02
  0.111749570503E-02
  0.102625213625E-02
  0.906468805639E-03
  0.765300135032E-03
  0.602234648855E-03
  0.406707575424E-03
  0.191445649192E-03
 -0.428209313119E-04
 -0.309584305605E-03
  0.112230175285E-02
  0.817814353750E-03
  0.481828693788E-03
  0.128622347441E-03
  0.112573271503E-02
  0.332321670151E-03
  0.118464489630E-02
  0.247000735353E-03
  0.966350333205E-03
 -0.910235082320E-04
  0.513189013131E-03
  0.106331117970E-02
 -0.149891626794E-03
  0.315834580840E-03
  0.742661590257E-03
 -0.580092464035E-03
 -0.208669594586E-03
  0.141386873849E-03
  0.476897744486E-03
  0.803831745566E-03
 -0.591688476966E-03
 -0.266267373007E-03
  0.676609069472E-04
  0.414954713730E-03
  0.780748791349E-03
 -0.545154672377E-03
 -0.123546730375E-03
  0.331770557643E-03
 -0.887869028343E-03
 -0.342978924901E-03
 -0.146833100321E-02
 -0.822085606362E-03
 -0.110585911629E-03
 -0.105613018960E-02
 -0.218030311726E-03
  0.397700000000E+04
  0.123200000000E+04
  0.123300000000E+04
  0.123400000000E+04
  0.123500000000E+04
  0.123600000000E+04
  0.123700000000E+04
  0.123800000000E+04
  0.123900000000E+04
  0.124000000000E+04
  0.124100000000E+04
  0.124200000000E+04
  0.124300000000E+04
  0.124400000000E+04
  0.124500000000E+04
  0.124600000000E+04
  0.124700000000E+04
  0.124800000000E+04
  0.124900000000E+04
  0.125000000000E+04
  0.125100000000E+04
  0.125200000000E+04
  0.125300000000E+04
  0.125400000000E+04
  0.125500000000E+04
  0.125600000000E+04
  0.125700000000E+04
  0.125800000000E+04
  0.125900000000E+04
  0.126000000000E+04
  0.126100000000E+04
  0.126200000000E+04
  0.126300000000E+04
  0.126400000000E+04
  0.126500000000E+04
  0.126600000000E+04
  0.126700000000E+04
  0.126800000000E+04
  0.126900000000E+04
  0.127000000000E+04
  0.258400000000E+04
  0.258500000000E+04
  0.258600000000E+04
  0.258700000000E+04
  0.258800000000E+04
  0.258900000000E+04
  0.259000000000E+04
  0.259100000000E+04
  0.259200000000E+04
  0.259300000000E+04
  0.259400000000E+04
  0.259500000000E+04
  0.259600000000E+04
  0.259700000000E+04
  0.259800000000E+04
  0.259900000000E+04
  0.260000000000E+04
  0.260100000000E+04
  0.260200000000E+04
  0.260300000000E+04
  0.260400000000E+04
  0.260500000000E+04
  0.260600000000E+04
  0.260700000000E+04
  0.260800000000E+04
  0.260900000000E+04
  0.261000000000E+04
  0.261100000000E+04
  0.261200000000E+04
  0.261300000000E+04
  0.261400000000E+04
  0.261500000000E+04
  0.261600000000E+04
  0.261700000000E+04
  0.261800000000E+04
  0.261900000000E+04
  0.262000000000E+04
  0.262100000000E+04
  0.262200000000E+04
  0.262300000000E+04
  0.433000000000E+04
  0.433100000000E+04
  0.433200000000E+04
  0.433300000000E+04
  0.433400000000E+04
  0.433500000000E+04
  0.433600000000E+04
  0.433700000000E+04
  0.433800000000E+04
  0.393800000000E+04
  0.393900000000E+04
  0.394000000000E+04
  0.394100000000E+04
  0.394200000000E+04
  0.394300000000E+04
  0.394400000000E+04
  0.394500000000E+04
  0.394600000000E+04
  0.394700000000E+04
  0.394800000000E+04
  0.394900000000E+04
  0.395000000000E+04
  0.395100000000E+04
  0.395200000000E+04
  0.395300000000E+04
  0.395400000000E+04
  0.395500000000E+04
  0.395600000000E+04
  0.395700000000E+04
  0.395800000000E+04
  0.395900000000E+04
  0.396000000000E+04
  0.396100000000E+04
  0.396200000000E+04
  0.396300000000E+04
  0.396400000000E+04
  0.396500000000E+04
  0.396600000000E+04
  0.396700000000E+04
  0.396800000000E+04
  0.396900000000E+04
  0.397000000000E+04
  0.397100000000E+04
  0.397200000000E+04
  0.397300000000E+04
  0.397400000000E+04
  0.397500000000E+04
  0.397600000000E+04
  0.100000000000E+01
  0.100000000000E+01
  0.100000000000E+01
  0.100000000000E+01
  0.100000000000E+01
  0.100000000000E+01
  0.100000000000E+01
  0.100000000000E+01
  0.100000000000E+01
  0.100000000000E+01
  0.100000000000E+01
  0.100000000000E+01
  0.100000000000E+01
  0.100000000000E+01
  0.100000000000E+01
  0.100000000000E+01
  0.100000000000E+01
  0.100000000000E+01
  0.100000000000E+01
  0.100000000000E+01
  0.100000000000E+01
  0.100000000000E+01
  0.100000000000E+01
  0.100000000000E+01
  0.100000000000E+01
  0.100000000000E+01
  0.100000000000E+01
  0.100000000000E+01
  0.100000000000E+01
  0.100000000000E+01
  0.100000000000E+01
  0.100000000000E+01
  0.100000000000E+01
  0.100000000000E+01
  0.100000000000E+01
  0.100000000000E+01
  0.100000000000E+01
  0.100000000000E+01
  0.100000000000E+01
  0.100000000000E+01
  0.100000000000E+01
  0.100000000000E+01
  0.100000000000E+01
  0.100000000000E+01
  0.100000000000E+01
  0.100000000000E+01
  0.100000000000E+01
  0.100000000000E+01
  0.100000000000E+01
  0.100000000000E+01
  0.100000000000E+01
  0.100000000000E+01
  0.100000000000E+01
  0.100000000000E+01
  0.100000000000E+01
  0.100000000000E+01
  0.100000000000E+01
  0.100000000000E+01
  0.100000000000E+01
  0.100000000000E+01
  0.100000000000E+01
  0.100000000000E+01
  0.100000000000E+01
  0.100000000000E+01
  0.100000000000E+01
  0.100000000000E+01
  0.100000000000E+01
  0.100000000000E+01
  0.100000000000E+01
  0.100000000000E+01
  0.100000000000E+01
  0.100000000000E+01
  0.100000000000E+01
  0.100000000000E+01
  0.100000000000E+01
  0.100000000000E+01
  0.100000000000E+01
  0.100000000000E+01
  0.100000000000E+01
  0.100000000000E+01
  0.100000000000E+01
  0.100000000000E+01
  0.100000000000E+01
  0.100000000000E+01
  0.100000000000E+01
  0.100000000000E+01
  0.100000000000E+01
  0.100000000000E+01
  0.100000000000E+01
  0.100000000000E+01
  0.100000000000E+01
  0.100000000000E+01
  0.100000000000E+01
  0.100000000000E+01
  0.100000000000E+01
  0.100000000000E+01
  0.100000000000E+01
  0.100000000000E+01
  0.100000000000E+01
  0.100000000000E+01
  0.100000000000E+01
  0.100000000000E+01
  0.100000000000E+01
  0.100000000000E+01
  0.100000000000E+01
  0.100000000000E+01
  0.100000000000E+01
  0.100000000000E+01
  0.100000000000E+01
  0.100000000000E+01
  0.100000000000E+01
  0.100000000000E+01
  0.100000000000E+01
  0.100000000000E+01
  0.100000000000E+01
  0.100000000000E+01
  0.100000000000E+01
  0.100000000000E+01
  0.100000000000E+01
  0.100000000000E+01
  0.100000000000E+01
  0.100000000000E+01
  0.100000000000E+01
  0.100000000000E+01
  0.100000000000E+01
  0.100000000000E+01
  0.100000000000E+01
  0.100000000000E+01
  0.100000000000E+01
  0.200000000000E+01
  0.300000000000E+01
  0.400000000000E+01
  0.500000000000E+01
  0.600000000000E+01
  0.700000000000E+01
  0.800000000000E+01
  0.900000000000E+01