 TITLE = "zipper walls"
 Variables = "X", "Y", "Z", "CellIBlank"
ZONE T=Zone_00001 I=   41 J=   33
 DATAPACKING=BLOCK, VARLOCATION=([1,2,3]=NODAL, [4]=CELLCENTERED)
 -0.294725536646E-01
 -0.278523616306E-01
 -0.261932663933E-01
 -0.244971369332E-01
 -0.227658841807E-01
 -0.209942573705E-01
 -0.191882226046E-01
 -0.173547300501E-01
 -0.154959635684E-01
 -0.136142103170E-01
 -0.117082912553E-01
 -0.978373237077E-02
 -0.784484332373E-02
 -0.589424373409E-02
 -0.393466412435E-02
 -0.196893954357E-02
  0.101177386792E-10
  0.196893956338E-02
  0.393466414446E-02
  0.589424375480E-02
  0.784484334540E-02
  0.978373239386E-02
  0.117082912803E-01
  0.136142103304E-01
  0.154959635846E-01
  0.173547300697E-01
  0.191882226284E-01
  0.209942574312E-01
  0.227658844315E-01
  0.244971372416E-01
  0.261932661728E-01
  0.278523613617E-01
  0.294725536463E-01
  0.317888852761E-01
  0.339968263316E-01
  0.360888888022E-01
  0.380580321132E-01
  0.398977039924E-01
  0.416018779232E-01
  0.431650890733E-01
  0.445669629228E-01
 -0.288935424349E-01
 -0.273064358430E-01
 -0.256813967192E-01
 -0.240201967400E-01
 -0.223245310600E-01
 -0.205895417422E-01
 -0.188209640913E-01
 -0.170254531787E-01
 -0.152052846643E-01
 -0.133626518511E-01
 -0.114963576426E-01
 -0.961187586049E-02
 -0.771339119720E-02
 -0.580338487773E-02
 -0.388459802525E-02
 -0.195979024052E-02
 -0.318017949949E-04
  0.189622347041E-02
  0.382114404345E-02
  0.574010414523E-02
  0.765032575110E-02
  0.954914482371E-02
  0.114340159393E-01
  0.133007379860E-01
  0.151438891353E-01
  0.169646537277E-01
  0.187608063548E-01
  0.205300869221E-01
  0.222658670146E-01
  0.239623634765E-01
  0.256244698497E-01
  0.272504807717E-01
  0.288385954798E-01
  0.311183048733E-01
  0.332916813737E-01
  0.353513323979E-01
  0.372901681357E-01
  0.391016751796E-01
  0.407800571278E-01
  0.423199132892E-01
  0.437011091269E-01
 -0.283145312053E-01
 -0.267605100554E-01
 -0.251695270451E-01
 -0.235432565469E-01
 -0.218831779392E-01
 -0.201848261139E-01
 -0.184537055779E-01
 -0.166961763074E-01
 -0.149146057603E-01
 -0.131110933852E-01
 -0.112844240298E-01
 -0.944001935021E-02
 -0.758193907068E-02
 -0.571252602138E-02
 -0.383453192614E-02
 -0.195064093748E-02
 -0.636036001075E-04
  0.182350737744E-02
  0.370762394245E-02
  0.558596453566E-02
  0.745580815681E-02
  0.931455725357E-02
  0.111597405983E-01
  0.129872656416E-01
  0.147918146860E-01
  0.165745773856E-01
  0.183333900812E-01
  0.200659164130E-01
  0.217658495976E-01
  0.234275897114E-01
  0.250556735266E-01
  0.266486001816E-01
  0.282046373133E-01
  0.304477244705E-01
  0.325865364157E-01
  0.346137759936E-01
  0.365223041582E-01
  0.383056463668E-01
  0.399582363324E-01
  0.414747375051E-01
  0.428352553310E-01
 -0.277355199756E-01
 -0.262145842678E-01
 -0.246576573710E-01
 -0.230663163537E-01
 -0.214418248185E-01
 -0.197801104856E-01
 -0.180864470645E-01
 -0.163668994360E-01
 -0.146239268562E-01
 -0.128595349193E-01
 -0.110724904171E-01
 -0.926816283992E-02
 -0.745048694415E-02
 -0.562166716502E-02
 -0.378446582704E-02
 -0.194149163443E-02
 -0.954054052201E-04
  0.175079128447E-02
  0.359410384144E-02
  0.543182492609E-02
  0.726129056251E-02
  0.907996968343E-02
  0.108854652573E-01
  0.126737932972E-01
  0.144397402368E-01
  0.161845010435E-01
  0.179059738076E-01
  0.196017459038E-01
  0.212658321806E-01
  0.228928159463E-01
  0.244868772035E-01
  0.260467195915E-01
  0.275706791468E-01
  0.297771440677E-01
  0.318813914577E-01
  0.338762195893E-01
  0.357544401807E-01
  0.375096175540E-01
  0.391364155370E-01
  0.406295617209E-01
  0.419694015352E-01
 -0.271565087460E-01
 -0.256686584803E-01
 -0.241457876970E-01
 -0.225893761605E-01
 -0.210004716977E-01
 -0.193753948572E-01
 -0.177191885512E-01
 -0.160376225646E-01
 -0.143332479522E-01
 -0.126079764534E-01
 -0.108605568044E-01
 -0.909630632964E-02
 -0.731903481762E-02
 -0.553080830867E-02
 -0.373439972794E-02
 -0.193234233139E-02
 -0.127207210333E-03
  0.167807519150E-02
  0.348058374043E-02
  0.527768531653E-02
  0.706677296822E-02
  0.884538211329E-02
  0.106111899163E-01
  0.123603209528E-01
  0.140876657875E-01
  0.157944247014E-01
  0.174785575340E-01
  0.191375753947E-01
  0.207658147637E-01
  0.223580421812E-01
  0.239180808804E-01
  0.254448390015E-01
  0.269367209803E-01
  0.291065636649E-01
  0.311762464997E-01
  0.331386631850E-01
  0.349865762032E-01
  0.367135887412E-01
  0.383145947416E-01
  0.397843859368E-01
  0.411035477393E-01
 -0.265774975163E-01
 -0.251227326927E-01
 -0.236339180229E-01
 -0.221124359674E-01
 -0.205591185770E-01
 -0.189706792289E-01
 -0.173519300378E-01
 -0.157083456933E-01
 -0.140425690482E-01
 -0.123564179875E-01
 -0.106486231917E-01
 -0.892444981935E-02
 -0.718758269110E-02
 -0.543994945231E-02
 -0.368433362884E-02
 -0.192319302834E-02
 -0.159009015445E-03
  0.160535909853E-02
  0.336706363943E-02
  0.512354570696E-02
  0.687225537392E-02
  0.861079454315E-02
  0.103369145754E-01
  0.120468486083E-01
  0.137355913383E-01
  0.154043483593E-01
  0.170511412604E-01
  0.186734048856E-01
  0.202657973467E-01
  0.218232684160E-01
  0.233492845573E-01
  0.248429584114E-01
  0.263027628138E-01
  0.284359832621E-01
  0.304711015418E-01
  0.324011067807E-01
  0.342187122257E-01
  0.359175599284E-01
  0.374927739462E-01
  0.389392101527E-01
  0.402376939435E-01
 -0.259984862867E-01
 -0.245768069051E-01
 -0.231220483488E-01
 -0.216354957742E-01
 -0.201177654562E-01
 -0.185659636006E-01
 -0.169846715245E-01
 -0.153790688219E-01
 -0.137518901441E-01
 -0.121048595216E-01
 -0.104366895790E-01
 -0.875259330907E-02
 -0.705613056457E-02
 -0.534909059595E-02
 -0.363426752974E-02
 -0.191404372530E-02
 -0.190810820558E-03
  0.153264300556E-02
  0.325354353842E-02
  0.496940609739E-02
  0.667773777963E-02
  0.837620697301E-02
  0.100626392344E-01
  0.117333762639E-01
  0.133835168890E-01
  0.150142720173E-01
  0.166237249868E-01
  0.182092343765E-01
  0.197657799298E-01
  0.212884946509E-01
  0.227804882342E-01
  0.242410778214E-01
  0.256688046473E-01
  0.277654028593E-01
  0.297659565838E-01
  0.316635503763E-01
  0.334508482481E-01
  0.351215311156E-01
  0.366709531508E-01
  0.380940343686E-01
  0.393718401476E-01
 -0.254194750571E-01
 -0.240308811175E-01
 -0.226101786747E-01
 -0.211585555811E-01
 -0.196764123355E-01
 -0.181612479723E-01
 -0.166174130111E-01
 -0.150497919506E-01
 -0.134612112401E-01
 -0.118533010557E-01
 -0.102247559663E-01
 -0.858073679879E-02
 -0.692467843805E-02
 -0.525823173960E-02
 -0.358420143063E-02
 -0.190489442225E-02
 -0.222612625671E-03
  0.145992691259E-02
  0.314002343742E-02
  0.481526648782E-02
  0.648322018533E-02
  0.814161940286E-02
  0.978836389338E-02
  0.114199039195E-01
  0.130314424397E-01
  0.146241956752E-01
  0.161963087132E-01
  0.177450638674E-01
  0.192657625128E-01
  0.207537208858E-01
  0.222116919110E-01
  0.236391972313E-01
  0.250348464807E-01
  0.270948224565E-01
  0.290608116258E-01
  0.309259939720E-01
  0.326829842706E-01
  0.343255023028E-01
  0.358491323554E-01
  0.372488585844E-01
  0.385059863517E-01
 -0.248404638274E-01
 -0.234849553299E-01
 -0.220983090007E-01
 -0.206816153879E-01
 -0.192350592147E-01
 -0.177565323440E-01
 -0.162501544978E-01
 -0.147205150792E-01
 -0.131705323361E-01
 -0.116017425897E-01
 -0.100128223536E-01
 -0.840888028850E-02
 -0.679322631152E-02
 -0.516737288324E-02
 -0.353413533153E-02
 -0.189574511921E-02
 -0.254414430783E-03
  0.138721081963E-02
  0.302650333641E-02
  0.466112687826E-02
  0.628870259104E-02
  0.790703183272E-02
  0.951408855240E-02
  0.111064315751E-01
  0.126793679905E-01
  0.142341193331E-01
  0.157688924396E-01
  0.172808933583E-01
  0.187657450958E-01
  0.202189471207E-01
  0.216428955879E-01
  0.230373166412E-01
  0.244008883142E-01
  0.264242420537E-01
  0.283556666678E-01
  0.301884375677E-01
  0.319151202931E-01
  0.335294734900E-01
  0.350273115601E-01
  0.364036828003E-01
  0.376401325559E-01
 -0.242614525978E-01
 -0.229390295423E-01
 -0.215864393266E-01
 -0.202046751948E-01
 -0.187937060940E-01
 -0.173518167156E-01
 -0.158828959844E-01
 -0.143912382078E-01
 -0.128798534320E-01
 -0.113501841238E-01
 -0.980088874091E-02
 -0.823702377822E-02
 -0.666177418499E-02
 -0.507651402688E-02
 -0.348406923243E-02
 -0.188659581616E-02
 -0.286216235896E-03
  0.131449472666E-02
  0.291298323540E-02
  0.450698726869E-02
  0.609418499674E-02
  0.767244426258E-02
  0.923981321141E-02
  0.107929592307E-01
  0.123272935412E-01
  0.138440429910E-01
  0.153414761660E-01
  0.168167228492E-01
  0.182657276789E-01
  0.196841733556E-01
  0.210740992648E-01
  0.224354360512E-01
  0.237669301477E-01
  0.257536616509E-01
  0.276505217099E-01
  0.294508811634E-01
  0.311472563156E-01
  0.327334446772E-01
  0.342054907647E-01
  0.355585070162E-01
  0.367742787600E-01
 -0.236824413681E-01
 -0.223931037547E-01
 -0.210745696525E-01
 -0.197277350016E-01
 -0.183523529732E-01
 -0.169471010873E-01
 -0.155156374710E-01
 -0.140619613365E-01
 -0.125891745280E-01
 -0.110986256579E-01
 -0.958895512820E-02
 -0.806516726793E-02
 -0.653032205847E-02
 -0.498565517053E-02
 -0.343400313333E-02
 -0.187744651312E-02
 -0.318018041008E-03
  0.124177863369E-02
  0.279946313440E-02
  0.435284765912E-02
  0.589966740245E-02
  0.743785669244E-02
  0.896553787043E-02
  0.104794868863E-01
  0.119752190920E-01
  0.134539666490E-01
  0.149140598924E-01
  0.163525523401E-01
  0.177657102619E-01
  0.191493995904E-01
  0.205053029417E-01
  0.218335554611E-01
  0.231329719812E-01
  0.250830812481E-01
  0.269453767519E-01
  0.287133247591E-01
  0.303793923381E-01
  0.319374158644E-01
  0.333836699693E-01
  0.347133312321E-01
  0.359084249642E-01
 -0.231034301385E-01
 -0.218471779671E-01
 -0.205626999784E-01
 -0.192507948085E-01
 -0.179109998525E-01
 -0.165423854590E-01
 -0.151483789577E-01
 -0.137326844651E-01
 -0.122984956240E-01
 -0.108470671920E-01
 -0.937702151549E-02
 -0.789331075765E-02
 -0.639886993194E-02
 -0.489479631417E-02
 -0.338393703423E-02
 -0.186829721007E-02
 -0.349819846121E-03
  0.116906254072E-02
  0.268594303339E-02
  0.419870804956E-02
  0.570514980815E-02
  0.720326912230E-02
  0.869126252944E-02
  0.101660145419E-01
  0.116231446427E-01
  0.130638903069E-01
  0.144866436188E-01
  0.158883818310E-01
  0.172656928449E-01
  0.186146258253E-01
  0.199365066186E-01
  0.212316748711E-01
  0.224990138147E-01
  0.244125008452E-01
  0.262402317939E-01
  0.279757683547E-01
  0.296115283606E-01
  0.311413870516E-01
  0.325618491739E-01
  0.338681554479E-01
  0.350425711683E-01
 -0.225244189088E-01
 -0.213012521795E-01
 -0.200508303044E-01
 -0.187738546153E-01
 -0.174696467317E-01
 -0.161376698307E-01
 -0.147811204443E-01
 -0.134034075937E-01
 -0.120078167199E-01
 -0.105955087261E-01
 -0.916508790279E-02
 -0.772145424737E-02
 -0.626741780542E-02
 -0.480393745782E-02
 -0.333387093512E-02
 -0.185914790703E-02
 -0.381621651234E-03
  0.109634644775E-02
  0.257242293239E-02
  0.404456843999E-02
  0.551063221386E-02
  0.696868155216E-02
  0.841698718846E-02
  0.985254219748E-02
  0.112710701935E-01
  0.126738139648E-01
  0.140592273452E-01
  0.154242113219E-01
  0.167656754280E-01
  0.180798520602E-01
  0.193677102955E-01
  0.206297942810E-01
  0.218650556482E-01
  0.237419204424E-01
  0.255350868359E-01
  0.272382119504E-01
  0.288436643830E-01
  0.303453582388E-01
  0.317400283785E-01
  0.330229796638E-01
  0.341767173724E-01
 -0.219454076792E-01
 -0.207553263919E-01
 -0.195389606303E-01
 -0.182969144222E-01
 -0.170282936110E-01
 -0.157329542023E-01
 -0.144138619310E-01
 -0.130741307224E-01
 -0.117171378159E-01
 -0.103439502602E-01
 -0.895315429008E-02
 -0.754959773708E-02
 -0.613596567889E-02
 -0.471307860146E-02
 -0.328380483602E-02
 -0.184999860398E-02
 -0.413423456346E-03
  0.102363035478E-02
  0.245890283138E-02
  0.389042883042E-02
  0.531611461956E-02
  0.673409398202E-02
  0.814271184747E-02
  0.953906985307E-02
  0.109189957442E-01
  0.122837376227E-01
  0.136318110716E-01
  0.149600408128E-01
  0.162656580110E-01
  0.175450782951E-01
  0.187989139724E-01
  0.200279136909E-01
  0.212310974817E-01
  0.230713400396E-01
  0.248299418780E-01
  0.265006555461E-01
  0.280758004055E-01
  0.295493294260E-01
  0.309182075831E-01
  0.321778038797E-01
  0.333108635766E-01
 -0.213663964495E-01
 -0.202094006043E-01
 -0.190270909562E-01
 -0.178199742290E-01
 -0.165869404902E-01
 -0.153282385740E-01
 -0.140466034176E-01
 -0.127448538510E-01
 -0.114264589119E-01
 -0.100923917943E-01
 -0.874122067738E-02
 -0.737774122680E-02
 -0.600451355236E-02
 -0.462221974510E-02
 -0.323373873692E-02
 -0.184084930094E-02
 -0.445225261459E-03
  0.950914261813E-03
  0.234538273038E-02
  0.373628922085E-02
  0.512159702527E-02
  0.649950641187E-02
  0.786843650649E-02
  0.922559750866E-02
  0.105669212949E-01
  0.118936612806E-01
  0.132043947980E-01
  0.144958703037E-01
  0.157656405941E-01
  0.170103045300E-01
  0.182301176493E-01
  0.194260331009E-01
  0.205971393152E-01
  0.224007596368E-01
  0.241247969200E-01
  0.257630991418E-01
  0.273079364280E-01
  0.287533006132E-01
  0.300963867877E-01
  0.313326280955E-01
  0.324450097807E-01
 -0.207873852199E-01
 -0.196634748167E-01
 -0.185152212822E-01
 -0.173430340359E-01
 -0.161455873695E-01
 -0.149235229457E-01
 -0.136793449042E-01
 -0.124155769796E-01
 -0.111357800078E-01
 -0.984083332839E-02
 -0.852928706467E-02
 -0.720588471651E-02
 -0.587306142584E-02
 -0.453136088875E-02
 -0.318367263782E-02
 -0.183169999789E-02
 -0.477027066571E-03
  0.878198168844E-03
  0.223186262937E-02
  0.358214961129E-02
  0.492707943097E-02
  0.626491884173E-02
  0.759416116550E-02
  0.891212516425E-02
  0.102148468457E-01
  0.115035849386E-01
  0.127769785245E-01
  0.140316997946E-01
  0.152656231771E-01
  0.164755307649E-01
  0.176613213261E-01
  0.188241525108E-01
  0.199631811487E-01
  0.217301792340E-01
  0.234196519620E-01
  0.250255427375E-01
  0.265400724505E-01
  0.279572718004E-01
  0.292745659924E-01
  0.304874523114E-01
  0.315791559848E-01
 -0.202083739903E-01
 -0.191175490292E-01
 -0.180033516081E-01
 -0.168660938427E-01
 -0.157042342487E-01
 -0.145188073174E-01
 -0.133120863909E-01
 -0.120863001083E-01
 -0.108451011038E-01
 -0.958927486248E-02
 -0.831735345196E-02
 -0.703402820623E-02
 -0.574160929931E-02
 -0.444050203239E-02
 -0.313360653872E-02
 -0.182255069485E-02
 -0.508828871684E-03
  0.805482075875E-03
  0.211834252836E-02
  0.342801000172E-02
  0.473256183668E-02
  0.603033127159E-02
  0.731988582452E-02
  0.859865281984E-02
  0.986277239642E-02
  0.111135085965E-01
  0.123495622509E-01
  0.135675292855E-01
  0.147656057601E-01
  0.159407569997E-01
  0.170925250030E-01
  0.182222719208E-01
  0.193292229822E-01
  0.210595988312E-01
  0.227145070040E-01
  0.242879863331E-01
  0.257722084730E-01
  0.271612429876E-01
  0.284527451970E-01
  0.296422765273E-01
  0.307133021890E-01
 -0.196293627606E-01
 -0.185716232416E-01
 -0.174914819340E-01
 -0.163891536496E-01
 -0.152628811280E-01
 -0.141140916891E-01
 -0.129448278775E-01
 -0.117570232369E-01
 -0.105544221998E-01
 -0.933771639657E-02
 -0.810541983926E-02
 -0.686217169595E-02
 -0.561015717279E-02
 -0.434964317604E-02
 -0.308354043961E-02
 -0.181340139180E-02
 -0.540630676797E-03
  0.732765982907E-03
  0.200482242736E-02
  0.327387039215E-02
  0.453804424238E-02
  0.579574370145E-02
  0.704561048353E-02
  0.828518047543E-02
  0.951069794716E-02
  0.107234322544E-01
  0.119221459773E-01
  0.131033587764E-01
  0.142655883432E-01
  0.154059832346E-01
  0.165237286799E-01
  0.176203913307E-01
  0.186952648157E-01
  0.203890184284E-01
  0.220093620460E-01
  0.235504299288E-01
  0.250043444955E-01
  0.263652141748E-01
  0.276309244016E-01
  0.287971007432E-01
  0.298474483931E-01
 -0.190503515310E-01
 -0.180256974540E-01
 -0.169796122599E-01
 -0.159122134564E-01
 -0.148215280072E-01
 -0.137093760607E-01
 -0.125775693642E-01
 -0.114277463655E-01
 -0.102637432957E-01
 -0.908615793067E-02
 -0.789348622655E-02
 -0.669031518566E-02
 -0.547870504626E-02
 -0.425878431968E-02
 -0.303347434051E-02
 -0.180425208876E-02
 -0.572432481909E-03
  0.660049889938E-03
  0.189130232635E-02
  0.311973078258E-02
  0.434352664809E-02
  0.556115613131E-02
  0.677133514255E-02
  0.797170813102E-02
  0.915862349790E-02
  0.103333559123E-01
  0.114947297037E-01
  0.126391882673E-01
  0.137655709262E-01
  0.148712094695E-01
  0.159549323568E-01
  0.170185107406E-01
  0.180613066491E-01
  0.197184380256E-01
  0.213042170881E-01
  0.228128735245E-01
  0.242364805179E-01
  0.255691853620E-01
  0.268091036062E-01
  0.279519249590E-01
  0.289815945973E-01
 -0.184713403013E-01
 -0.174797716664E-01
 -0.164677425859E-01
 -0.154352732633E-01
 -0.143801748865E-01
 -0.133046604324E-01
 -0.122103108508E-01
 -0.110984694942E-01
 -0.997306439168E-02
 -0.883459946476E-02
 -0.768155261385E-02
 -0.651845867538E-02
 -0.534725291974E-02
 -0.416792546332E-02
 -0.298340824141E-02
 -0.179510278571E-02
 -0.604234287022E-03
  0.587333796969E-03
  0.177778222535E-02
  0.296559117302E-02
  0.414900905379E-02
  0.532656856117E-02
  0.649705980157E-02
  0.765823578661E-02
  0.880654904864E-02
  0.994327957025E-02
  0.110673134301E-01
  0.121750177582E-01
  0.132655535093E-01
  0.143364357044E-01
  0.153861360337E-01
  0.164166301506E-01
  0.174273484826E-01
  0.190478576228E-01
  0.205990721301E-01
  0.220753171202E-01
  0.234686165404E-01
  0.247731565492E-01
  0.259872828108E-01
  0.271067491749E-01
  0.281157408014E-01
 -0.178923290717E-01
 -0.169338458788E-01
 -0.159558729118E-01
 -0.149583330701E-01
 -0.139388217657E-01
 -0.128999448041E-01
 -0.118430523374E-01
 -0.107691926228E-01
 -0.968238548765E-02
 -0.858304099885E-02
 -0.746961900114E-02
 -0.634660216509E-02
 -0.521580079321E-02
 -0.407706660697E-02
 -0.293334214231E-02
 -0.178595348267E-02
 -0.636036092135E-03
  0.514617704000E-03
  0.166426212434E-02
  0.281145156345E-02
  0.395449145950E-02
  0.509198099102E-02
  0.622278446058E-02
  0.734476344220E-02
  0.845447459938E-02
  0.955320322817E-02
  0.106398971565E-01
  0.117108472491E-01
  0.127655360923E-01
  0.138016619393E-01
  0.148173397106E-01
  0.158147495605E-01
  0.167933903161E-01
  0.183772772200E-01
  0.198939271721E-01
  0.213377607159E-01
  0.227007525629E-01
  0.239771277364E-01
  0.251654620154E-01
  0.262615733908E-01
  0.272498870055E-01
 -0.173133178420E-01
 -0.163879200912E-01
 -0.154440032377E-01
 -0.144813928770E-01
 -0.134974686450E-01
 -0.124952291758E-01
 -0.114757938241E-01
 -0.104399157515E-01
 -0.939170658361E-02
 -0.833148253294E-02
 -0.725768538843E-02
 -0.617474565481E-02
 -0.508434866668E-02
 -0.398620775061E-02
 -0.288327604321E-02
 -0.177680417962E-02
 -0.667837897247E-03
  0.441901611032E-03
  0.155074202333E-02
  0.265731195388E-02
  0.375997386520E-02
  0.485739342088E-02
  0.594850911960E-02
  0.703129109779E-02
  0.810240015012E-02
  0.916312688609E-02
  0.102124808829E-01
  0.112466767400E-01
  0.122655186753E-01
  0.132668881741E-01
  0.142485433875E-01
  0.152128689705E-01
  0.161594321496E-01
  0.177066968172E-01
  0.191887822141E-01
  0.206002043115E-01
  0.219328885854E-01
  0.231810989236E-01
  0.243436412200E-01
  0.254163976067E-01
  0.263840332097E-01
 -0.167343066124E-01
 -0.158419943036E-01
 -0.149321335636E-01
 -0.140044526838E-01
 -0.130561155242E-01
 -0.120905135474E-01
 -0.111085353107E-01
 -0.101106388801E-01
 -0.910102767957E-02
 -0.807992406704E-02
 -0.704575177573E-02
 -0.600288914453E-02
 -0.495289654016E-02
 -0.389534889425E-02
 -0.283320994410E-02
 -0.176765487658E-02
 -0.699639702360E-03
  0.369185518063E-03
  0.143722192233E-02
  0.250317234431E-02
  0.356545627091E-02
  0.462280585074E-02
  0.567423377861E-02
  0.671781875338E-02
  0.775032570086E-02
  0.877305054401E-02
  0.978506460928E-02
  0.107825062309E-01
  0.117655012584E-01
  0.127321144090E-01
  0.136797470644E-01
  0.146109883804E-01
  0.155254739831E-01
  0.170361164144E-01
  0.184836372562E-01
  0.198626479072E-01
  0.211650246079E-01
  0.223850701108E-01
  0.235218204246E-01
  0.245712218225E-01
  0.255181794138E-01
 -0.161552953828E-01
 -0.152960685160E-01
 -0.144202638896E-01
 -0.135275124907E-01
 -0.126147624035E-01
 -0.116857979191E-01
 -0.107412767974E-01
 -0.978136200873E-02
 -0.881034877554E-02
 -0.782836560113E-02
 -0.683381816302E-02
 -0.583103263424E-02
 -0.482144441363E-02
 -0.380449003790E-02
 -0.278314384500E-02
 -0.175850557353E-02
 -0.731441507472E-03
  0.296469425094E-03
  0.132370182132E-02
  0.234903273475E-02
  0.337093867661E-02
  0.438821828060E-02
  0.539995843763E-02
  0.640434640897E-02
  0.739825125161E-02
  0.838297420194E-02
  0.935764833569E-02
  0.103183357218E-01
  0.112654838414E-01
  0.121973406439E-01
  0.131109507412E-01
  0.140091077903E-01
  0.148915158166E-01
  0.163655360116E-01
  0.177784922982E-01
  0.191250915029E-01
  0.203971606303E-01
  0.215890412980E-01
  0.226999996293E-01
  0.237260460384E-01
  0.246523256180E-01
 -0.155762841531E-01
 -0.147501427284E-01
 -0.139083942155E-01
 -0.130505722975E-01
 -0.121734092828E-01
 -0.112810822908E-01
 -0.103740182840E-01
 -0.945208513736E-02
 -0.851966987150E-02
 -0.757680713522E-02
 -0.662188455032E-02
 -0.565917612396E-02
 -0.468999228711E-02
 -0.371363118154E-02
 -0.273307774590E-02
 -0.174935627049E-02
 -0.763243312585E-03
  0.223753332125E-03
  0.121018172032E-02
  0.219489312518E-02
  0.317642108232E-02
  0.415363071046E-02
  0.512568309664E-02
  0.609087406456E-02
  0.704617680235E-02
  0.799289785986E-02
  0.893023206209E-02
  0.985416521272E-02
  0.107654664244E-01
  0.116625668788E-01
  0.125421544181E-01
  0.134072272003E-01
  0.142575576501E-01
  0.156949556088E-01
  0.170733473402E-01
  0.183875350986E-01
  0.196292966528E-01
  0.207930124852E-01
  0.218781788339E-01
  0.228808702543E-01
  0.237864718221E-01
 -0.149972729235E-01
 -0.142042169408E-01
 -0.133965245414E-01
 -0.125736321044E-01
 -0.117320561620E-01
 -0.108763666625E-01
 -0.100067597707E-01
 -0.912280826600E-02
 -0.822899096747E-02
 -0.732524866931E-02
 -0.640995093761E-02
 -0.548731961367E-02
 -0.455854016058E-02
 -0.362277232519E-02
 -0.268301164680E-02
 -0.174020696744E-02
 -0.795045117698E-03
  0.151037239156E-03
  0.109666161931E-02
  0.204075351561E-02
  0.298190348802E-02
  0.391904314032E-02
  0.485140775566E-02
  0.577740172015E-02
  0.669410235309E-02
  0.760282151778E-02
  0.850281578850E-02
  0.938999470361E-02
  0.102654490075E-01
  0.111277931137E-01
  0.119733580950E-01
  0.128053466102E-01
  0.136235994836E-01
  0.150243752060E-01
  0.163682023822E-01
  0.176499786943E-01
  0.188614326753E-01
  0.199969836724E-01
  0.210563580385E-01
  0.220356944701E-01
  0.229206180262E-01
 -0.144182616938E-01
 -0.136582911532E-01
 -0.128846548673E-01
 -0.120966919112E-01
 -0.112907030413E-01
 -0.104716510342E-01
 -0.963950125729E-02
 -0.879353139464E-02
 -0.793831206343E-02
 -0.707369020341E-02
 -0.619801732490E-02
 -0.531546310339E-02
 -0.442708803405E-02
 -0.353191346883E-02
 -0.263294554770E-02
 -0.173105766440E-02
 -0.826846922810E-03
  0.783211461877E-04
  0.983141518305E-03
  0.188661390604E-02
  0.278738589373E-02
  0.368445557017E-02
  0.457713241467E-02
  0.546392937574E-02
  0.634202790383E-02
  0.721274517570E-02
  0.807539951490E-02
  0.892582419451E-02
  0.976543159053E-02
  0.105930193486E-01
  0.114045617719E-01
  0.122034660202E-01
  0.129896413171E-01
  0.143537948032E-01
  0.156630574243E-01
  0.169124222899E-01
  0.180935686978E-01
  0.192009548596E-01
  0.202345372431E-01
  0.211905186860E-01
  0.220547642304E-01
 -0.138392504642E-01
 -0.131123653656E-01
 -0.123727851933E-01
 -0.116197517181E-01
 -0.108493499205E-01
 -0.100669354058E-01
 -0.927224274394E-02
 -0.846425452327E-02
 -0.764763315940E-02
 -0.682213173750E-02
 -0.598608371220E-02
 -0.514360659311E-02
 -0.429563590753E-02
 -0.344105461247E-02
 -0.258287944859E-02
 -0.172190836135E-02
 -0.858648727923E-03
  0.560505321898E-05
  0.869621417299E-03
  0.173247429648E-02
  0.259286829943E-02
  0.344986800003E-02
  0.430285707369E-02
  0.515045703133E-02
  0.598995345457E-02
  0.682266883362E-02
  0.764798324130E-02
  0.846165368541E-02
  0.926541417356E-02
  0.100582455834E-01
  0.108357654488E-01
  0.116015854301E-01
  0.123556831506E-01
  0.136832144004E-01
  0.149579124663E-01
  0.161748658856E-01
  0.173257047203E-01
  0.184049260468E-01
  0.194127164477E-01
  0.203453429019E-01
  0.211889104345E-01
 -0.132602392345E-01
 -0.125664395781E-01
 -0.118609155192E-01
 -0.111428115249E-01
 -0.104079967998E-01
 -0.966221977752E-02
 -0.890498423058E-02
 -0.813497765191E-02
 -0.735695425536E-02
 -0.657057327159E-02
 -0.577415009949E-02
 -0.497175008282E-02
 -0.416418378100E-02
 -0.335019575612E-02
 -0.253281334949E-02
 -0.171275905831E-02
 -0.890450533036E-03
 -0.671110397498E-04
  0.756101316293E-03
  0.157833468691E-02
  0.239835070514E-02
  0.321528042989E-02
  0.402858173270E-02
  0.483698468692E-02
  0.563787900531E-02
  0.643259249154E-02
  0.722056696771E-02
  0.799748317631E-02
  0.876539675660E-02
  0.952347181832E-02
  0.102669691257E-01
  0.109997048401E-01
  0.117217249841E-01
  0.130126339976E-01
  0.142527675083E-01
  0.154373094813E-01
  0.165578407428E-01
  0.176088972340E-01
  0.185908956523E-01
  0.195001671178E-01
  0.203230566386E-01
 -0.126812280049E-01
 -0.120205137905E-01
 -0.113490458451E-01
 -0.106658713318E-01
 -0.996664367901E-02
 -0.925750414920E-02
 -0.853772571722E-02
 -0.780570078054E-02
 -0.706627535133E-02
 -0.631901480568E-02
 -0.556221648679E-02
 -0.479989357254E-02
 -0.403273165448E-02
 -0.325933689976E-02
 -0.248274725039E-02
 -0.170360975526E-02
 -0.922252338148E-03
 -0.139827132719E-03
  0.642581215287E-03
  0.142419507734E-02
  0.220383311084E-02
  0.298069285975E-02
  0.375430639172E-02
  0.452351234251E-02
  0.528580455605E-02
  0.604251614946E-02
  0.679315069411E-02
  0.753331266721E-02
  0.826537933964E-02
  0.898869805320E-02
  0.969817280257E-02
  0.103978242500E-01
  0.110877668175E-01
  0.123420535947E-01
  0.135476225503E-01
  0.146997530770E-01
  0.157899767652E-01
  0.168128684212E-01
  0.177690748569E-01
  0.186549913336E-01
  0.194572028428E-01
 -0.121022167752E-01
 -0.114745880029E-01
 -0.108371761710E-01
 -0.101889311386E-01
 -0.952529055826E-02
 -0.885278852088E-02
 -0.817046720386E-02
 -0.747642390918E-02
 -0.677559644729E-02
 -0.606745633977E-02
 -0.535028287408E-02
 -0.462803706225E-02
 -0.390127952795E-02
 -0.316847804340E-02
 -0.243268115129E-02
 -0.169446045222E-02
 -0.954054143261E-03
 -0.212543225687E-03
  0.529061114281E-03
  0.127005546777E-02
  0.200931551655E-02
  0.274610528961E-02
  0.348003105073E-02
  0.421003999810E-02
  0.493373010680E-02
  0.565243980739E-02
  0.636573442052E-02
  0.706914215811E-02
  0.776536192268E-02
  0.845392428808E-02
  0.912937647946E-02
  0.979594365993E-02
  0.104538086510E-01
  0.116714731919E-01
  0.128424775924E-01
  0.139621966727E-01
  0.150221127877E-01
  0.160168396084E-01
  0.169472540615E-01
  0.178098155495E-01
  0.185913490469E-01
 -0.115232055456E-01
 -0.109286622153E-01
 -0.103253064970E-01
 -0.971199094548E-02
 -0.908393743751E-02
 -0.844807289255E-02
 -0.780320869050E-02
 -0.714714703782E-02
 -0.648491754325E-02
 -0.581589787387E-02
 -0.513834926137E-02
 -0.445618055197E-02
 -0.376982740142E-02
 -0.307761918705E-02
 -0.238261505219E-02
 -0.168531114917E-02
 -0.985855948373E-03
 -0.285259318656E-03
  0.415541013275E-03
  0.111591585821E-02
  0.181479792225E-02
  0.251151771947E-02
  0.320575570975E-02
  0.389656765369E-02
  0.458165565754E-02
  0.526236346531E-02
  0.593831814692E-02
  0.660497164900E-02
  0.726534450572E-02
  0.791915052296E-02
  0.856058015635E-02
  0.919406306987E-02
  0.981985048452E-02
  0.110008927891E-01
  0.121373326344E-01
  0.132246402684E-01
  0.142542488102E-01
  0.152208107956E-01
  0.161254332662E-01
  0.169646397654E-01
  0.177254952511E-01
 -0.109441943160E-01
 -0.103827364277E-01
 -0.981343682288E-02
 -0.923505075233E-02
 -0.864258431677E-02
 -0.804335726423E-02
 -0.743595017714E-02
 -0.681787016645E-02
 -0.619423863922E-02
 -0.556433940796E-02
 -0.492641564867E-02
 -0.428432404169E-02
 -0.363837527490E-02
 -0.298676033069E-02
 -0.233254895308E-02
 -0.167616184613E-02
 -0.101765775349E-02
 -0.357975411625E-03
  0.302020912269E-03
  0.961776248638E-03
  0.162028032796E-02
  0.227693014933E-02
  0.293148036876E-02
  0.358309530928E-02
  0.422958120828E-02
  0.487228712323E-02
  0.551090187332E-02
  0.614080113990E-02
  0.676532708876E-02
  0.738437675785E-02
  0.799178383324E-02
  0.859218247981E-02
  0.918589231801E-02
  0.103303123863E-01
  0.114321876764E-01
  0.124870838640E-01
  0.134863848327E-01
  0.144247819828E-01
  0.153036124708E-01
  0.161194639813E-01
  0.168596414552E-01
  0.100000000000E+00
  0.100000000000E+00
  0.100000000000E+00
  0.100000000000E+00
  0.100000000000E+00
  0.100000000000E+00
  0.100000000000E+00
  0.100000000000E+00
  0.100000000000E+00
  0.100000000000E+00
  0.100000000000E+00
  0.100000000000E+00
  0.100000000000E+00
  0.100000000000E+00
  0.100000000000E+00
  0.100000000000E+00
  0.100000000000E+00
  0.100000000000E+00
  0.100000000000E+00
  0.100000000000E+00
  0.100000000000E+00
  0.100000000000E+00
  0.100000000000E+00
  0.100000000000E+00
  0.100000000000E+00
  0.100000000000E+00
  0.100000000000E+00
  0.100000000000E+00
  0.100000000000E+00
  0.100000000000E+00
  0.100000000000E+00
  0.100000000000E+00
  0.100000000000E+00
  0.100000000000E+00
  0.100000000000E+00
  0.100000000000E+00
  0.100000000000E+00
  0.100000000000E+00
  0.100000000000E+00
  0.100000000000E+00
  0.100000000000E+00
  0.100000001490E+00
  0.100000001490E+00
  0.100000001490E+00
  0.100000001490E+00
  0.100000001490E+00
  0.100000001490E+00
  0.100000001490E+00
  0.100000001490E+00
  0.100000001490E+00
  0.100000001490E+00
  0.100000001490E+00
  0.100000001490E+00
  0.100000001490E+00
  0.100000001490E+00
  0.100000001490E+00
  0.100000001490E+00
  0.100000001490E+00
  0.100000001490E+00
  0.100000001490E+00
  0.100000001490E+00
  0.100000001490E+00
  0.100000001490E+00
  0.100000001490E+00
  0.100000001490E+00
  0.100000001490E+00
  0.100000001490E+00